   * xtb version 6.4.1 (23d549d) compiled by 'conda@3c73975816cd' on 2022-01-07
          program call               : /home/maihfly/anaconda3/envs/Cyclodextrins-env-4.0/bin/xtb butane_opt_xtb.xyz --chrg 0 --uhf 0 --opt
          number of atoms            :                    14
          number of electrons        :                    26
          charge                     :                     0
          spin                       :                   0.0

   ID    Z sym.   atoms
    1    6 C      1-4
    2    1 H      5-14

          :  Hamiltonian                  GFN2-xTB          :
 * total energy  :   -13.6502433 Eh     change       -0.3098144E-10 Eh
 * total energy  :   -13.6586385 Eh     change       -0.8395176E-02 Eh
 * total energy  :   -13.6599239 Eh     change       -0.1285408E-02 Eh
 * total energy  :   -13.6602568 Eh     change       -0.3328667E-03 Eh
 * total energy  :   -13.6608132 Eh     change       -0.5564271E-03 Eh
 * total energy  :   -13.6612292 Eh     change       -0.4160514E-03 Eh
 * total energy  :   -13.6618228 Eh     change       -0.5935693E-03 Eh
 * total energy  :   -13.6626716 Eh     change       -0.8488354E-03 Eh
 * total energy  :   -13.6631029 Eh     change       -0.4312629E-03 Eh
 * total energy  :   -13.6633288 Eh     change       -0.2259124E-03 Eh
 * total energy  :   -13.6640024 Eh     change       -0.4180124E-04 Eh
 * total energy  :   -13.6640433 Eh     change       -0.4092473E-04 Eh
 * total energy  :   -13.6640920 Eh     change       -0.4871166E-04 Eh
 * total energy  :   -13.6641138 Eh     change       -0.2183220E-04 Eh
 * total energy  :   -13.6641363 Eh     change       -0.2245957E-04 Eh
 * total energy  :   -13.6641461 Eh     change       -0.9840066E-05 Eh
 * total energy  :   -13.6641535 Eh     change       -0.7349304E-05 Eh
 * total energy  :   -13.6641604 Eh     change       -0.6936252E-05 Eh
 * total energy  :   -13.6641648 Eh     change       -0.4380661E-05 Eh
   *** GEOMETRY OPTIMIZATION CONVERGED AFTER 29 ITERATIONS ***

 final structure:
================
14
 xtb: 6.4.1 (23d549d)
C        -1.62268394644746    0.33821442395756    0.02655351609392
C        -0.54771118171811   -0.44980901238569   -0.71289182901264
C         0.69660326859648   -0.71163659445137    0.13662297572522
C         1.50893378754439    0.54822193732497    0.41343540355385
H        -1.26667676042901    1.32937107296763    0.29476860068204
H        -1.91569653545396   -0.18096791542907    0.93687097415989
H        -2.50430265766944    0.45361411069894   -0.60014833525676
H        -0.25751094970586    0.09124225677662   -1.61648492858859
H        -0.96752204819888   -1.40979361502046   -1.02353371831542
H         0.39584872884801   -1.16557327888619    1.08376461502433
H         1.33184999439161   -1.43061637823702   -0.38665374554953
H         2.41088346525611    0.30165926351618    0.96943287901958
H         0.93609545773350    1.26251557738602    0.99871799101549
H         1.80187937725261    1.02355815178191   -0.52045439855137

          :  Hamiltonian                  GFN2-xTB          :
         :: total energy             -13.664164804369 Eh    ::
         :: gradient norm              0.000232773841 Eh/a0 ::
         :: HOMO-LUMO gap             14.226934775737 eV    ::
         :: SCC energy               -13.874993186365 Eh    ::
         :: -> dispersion             -0.006294060943 Eh    ::
         :: repulsion energy           0.210821276097 Eh    ::

    * Orbital Energies and Occupations

         #    Occupation            Energy/Eh            Energy/eV
      -------------------------------------------------------------
         1        2.0000           -0.6178001             -16.8112
         2        2.0000           -0.5961581             -16.2223
         3        2.0000           -0.5730112             -15.5924
         4        2.0000           -0.5477270             -14.9044
         5        2.0000           -0.5066460             -13.7865
         6        2.0000           -0.5055620             -13.7570
         7        2.0000           -0.4852445             -13.2042
         8        2.0000           -0.4659194             -12.6783
         9        2.0000           -0.4621658             -12.5762
        10        2.0000           -0.4483558             -12.2004
        11        2.0000           -0.4258838             -11.5889
        12        2.0000           -0.4239097             -11.5352
        13        2.0000           -0.4217247             -11.4757 (HOMO)
        14                          0.1011056               2.7512 (LUMO)
        15                          0.1117125               3.0399
        16                          0.1372428               3.7346
        17                          0.1488660               4.0509
        18                          0.1493494               4.0640
        19                          0.1573888               4.2828
        20                          0.2021858               5.5018
        21                          0.2071078               5.6357
        22                          0.2344215               6.3789
        23                          0.2489527               6.7743
        24                          0.2781792               7.5696
       ...                                ...                  ...
        26                          0.3027679               8.2387
      -------------------------------------------------------------
                  HL-Gap            0.5228302 Eh           14.2269 eV

     #   Z          covCN         q      C6AA      α(0)
     1   6 C        3.751    -0.101    22.491     6.763
     2   6 C        3.800    -0.053    21.521     6.605
     3   6 C        3.800    -0.053    21.521     6.605
     4   6 C        3.751    -0.101    22.491     6.763
     5   1 H        0.925     0.035     2.513     2.479
     6   1 H        0.925     0.032     2.553     2.499
     7   1 H        0.925     0.030     2.585     2.514
     8   1 H        0.924     0.030     2.588     2.516
     9   1 H        0.924     0.026     2.643     2.542
    10   1 H        0.924     0.030     2.588     2.516
    11   1 H        0.924     0.026     2.643     2.542
    12   1 H        0.925     0.030     2.585     2.514
    13   1 H        0.925     0.035     2.514     2.479
    14   1 H        0.925     0.032     2.552     2.498

Wiberg/Mayer (AO) data.
largest (>0.10) Wiberg bond orders for each atom

     #   Z sym  total        # sym  WBO       # sym  WBO       # sym  WBO
 ---------------------------------------------------------------------------
     1   6 C    3.997 --     2 C    1.020     6 H    0.988     7 H    0.988
                             5 H    0.986
     2   6 C    3.998 --     1 C    1.020     3 C    1.008     9 H    0.979
                             8 H    0.978
     3   6 C    3.998 --     4 C    1.020     2 C    1.008    11 H    0.979
                            10 H    0.978
     4   6 C    3.997 --     3 C    1.020    14 H    0.988    12 H    0.988
                            13 H    0.986
     5   1 H    0.999 --     1 C    0.986
     6   1 H    0.999 --     1 C    0.988
     7   1 H    0.999 --     1 C    0.988
     8   1 H    0.999 --     2 C    0.978
     9   1 H    0.999 --     2 C    0.979
    10   1 H    0.999 --     3 C    0.978
    11   1 H    0.999 --     3 C    0.979
    12   1 H    0.999 --     4 C    0.988
    13   1 H    0.999 --     4 C    0.986
    14   1 H    0.999 --     4 C    0.988
 ---------------------------------------------------------------------------

molecular dipole:
                 x           y           z       tot (Debye)
 q only:       -0.002       0.013       0.006
   full:       -0.001       0.010       0.005       0.029

           -------------------------------------------------
          | TOTAL ENERGY              -13.664164804369 Eh   |
          | GRADIENT NORM               0.000232773841 Eh/α |
          | HOMO-LUMO GAP              14.226934775737 eV   |
           -------------------------------------------------

 * finished run on 2022/02/09 at 17:30:04.511
