   * xtb version 6.4.1 (23d549d) compiled by 'conda@3c73975816cd' on 2022-01-07
          program call               : /home/maihfly/anaconda3/envs/Cyclodextrins-env-4.0/bin/xtb NCT_opt_xtb.xyz --chrg 0 --uhf 0 --opt
          number of atoms            :                    26
          number of electrons        :                    64
          charge                     :                     0
          spin                       :                   0.0

   ID    Z sym.   atoms
    1    6 C      1, 3-10, 12
    2    7 N      2, 11
    3    1 H      13-26

          :  Hamiltonian                  GFN2-xTB          :
 * total energy  :   -34.3568552 Eh     change       -0.4068212E-09 Eh
 * total energy  :   -34.3771553 Eh     change       -0.2030010E-01 Eh
 * total energy  :   -34.3820641 Eh     change       -0.4908769E-02 Eh
 * total energy  :   -34.3829824 Eh     change       -0.9183569E-03 Eh
 * total energy  :   -34.3833433 Eh     change       -0.3608763E-03 Eh
 * total energy  :   -34.3835226 Eh     change       -0.1792854E-03 Eh
 * total energy  :   -34.3836899 Eh     change       -0.1672863E-03 Eh
 * total energy  :   -34.3838490 Eh     change       -0.1591697E-03 Eh
 * total energy  :   -34.3840632 Eh     change       -0.2141646E-03 Eh
 * total energy  :   -34.3842657 Eh     change       -0.2025204E-03 Eh
 * total energy  :   -34.3955352 Eh     change       -0.3117575E-04 Eh
 * total energy  :   -34.3955610 Eh     change       -0.2581112E-04 Eh
 * total energy  :   -34.3955753 Eh     change       -0.1435162E-04 Eh
 * total energy  :   -34.3955855 Eh     change       -0.1012095E-04 Eh
 * total energy  :   -34.3955944 Eh     change       -0.8907221E-05 Eh
 * total energy  :   -34.3956123 Eh     change       -0.1788422E-04 Eh
 * total energy  :   -34.3956274 Eh     change       -0.1514037E-04 Eh
 * total energy  :   -34.3956340 Eh     change       -0.6593922E-05 Eh
 * total energy  :   -34.3956383 Eh     change       -0.4321714E-05 Eh
   *** GEOMETRY OPTIMIZATION CONVERGED AFTER 57 ITERATIONS ***

 final structure:
================
26
 xtb: 6.4.1 (23d549d)
C         1.20093776696944    1.76419397772199    0.97482986818219
N         1.22322111490612    0.34507194387017    0.72802841183584
C         2.55321859319964   -0.18807961641670    0.49924230816939
C         2.32486164580970   -1.56634117630832   -0.13519185812076
C         0.85938131615980   -1.54052935374350   -0.59748990100039
C         0.43313653206462   -0.07433399085890   -0.41909445052373
C        -1.03946329204274    0.06544896693219   -0.17450907950511
C        -1.91538717861921    0.44488028216110   -1.18286263974539
C        -3.26964917833397    0.53417581334922   -0.90429601017817
C        -3.69557003768406    0.24334533347886    0.38187817680957
N        -2.87204385901362   -0.11715554365849    1.35243862823783
C        -1.58440116903541   -0.20564547924060    1.07852277367736
H         0.17391029184716    2.08080444082049    1.15242018345382
H         1.61037612797593    2.34805270172089    0.13267308377874
H         1.79166793317416    1.97802983773283    1.86461910036262
H         3.12981621368011    0.45811784563589   -0.18699181416368
H         3.09261614276133   -0.24233902273158    1.44696939146311
H         3.00580316605327   -1.72514406270457   -0.97050605542402
H         2.48731836712172   -2.36273897622194    0.58856306110242
H         0.73584395551650   -1.87301372639138   -1.62661054097635
H         0.24444257912061   -2.17069200185501    0.04455574154872
H         0.70778277825907    0.50334066735242   -1.32546854353623
H        -1.54131972850336    0.66849322221079   -2.17299315648434
H        -3.97540437506216    0.82616288336145   -1.66698391293982
H        -4.74151066428293    0.30150204201719    0.65364056941335
H        -0.93957504204108   -0.49560700823454    1.89699666456319

          :  Hamiltonian                  GFN2-xTB          :
         :: total energy             -34.395638317787 Eh    ::
         :: gradient norm              0.000358156607 Eh/a0 ::
         :: HOMO-LUMO gap              2.906476100742 eV    ::
         :: SCC energy               -34.914687972376 Eh    ::
         :: -> dispersion             -0.023507419528 Eh    ::
         :: repulsion energy           0.518888050572 Eh    ::

    * Orbital Energies and Occupations

         #    Occupation            Energy/Eh            Energy/eV
      -------------------------------------------------------------
         1        2.0000           -0.6601696             -17.9641
       ...           ...                  ...                  ...
        20        2.0000           -0.4844662             -13.1830
        21        2.0000           -0.4709509             -12.8152
        22        2.0000           -0.4686792             -12.7534
        23        2.0000           -0.4645816             -12.6419
        24        2.0000           -0.4596370             -12.5074
        25        2.0000           -0.4532429             -12.3334
        26        2.0000           -0.4475191             -12.1776
        27        2.0000           -0.4327380             -11.7754
        28        2.0000           -0.4296390             -11.6911
        29        2.0000           -0.4274676             -11.6320
        30        2.0000           -0.4058760             -11.0444
        31        2.0000           -0.3640049              -9.9051
        32        2.0000           -0.3509960              -9.5511 (HOMO)
        33                         -0.2441850              -6.6446 (LUMO)
        34                         -0.2330180              -6.3407
        35                         -0.1097435              -2.9863
        36                          0.0307716               0.8373
        37                          0.0520859               1.4173
        38                          0.0584777               1.5913
        39                          0.0911116               2.4793
        40                          0.1083802               2.9492
        41                          0.1195695               3.2537
        42                          0.1255961               3.4176
        43                          0.1449545               3.9444
       ...                                ...                  ...
        62                          0.6275543              17.0766
      -------------------------------------------------------------
                  HL-Gap            0.1068110 Eh            2.9065 eV

     #   Z          covCN         q      C6AA      α(0)
     1   6 C        3.703    -0.026    21.185     6.581
     2   7 N        2.751    -0.180    24.896     7.411
     3   6 C        3.799     0.014    20.349     6.423
     4   6 C        3.819    -0.059    21.627     6.618
     5   6 C        3.827    -0.057    21.585     6.611
     6   6 C        3.855     0.047    19.753     6.321
     7   6 C        2.968    -0.003    28.107     8.696
     8   6 C        2.933    -0.021    28.521     8.758
     9   6 C        2.913    -0.041    29.008     8.832
    10   6 C        2.914     0.055    26.764     8.483
    11   7 N        1.835    -0.219    26.625     7.647
    12   6 C        2.918     0.055    26.770     8.484
    13   1 H        0.925     0.037     2.485     2.465
    14   1 H        0.923     0.008     2.923     2.674
    15   1 H        0.925     0.039     2.456     2.451
    16   1 H        0.922     0.007     2.939     2.681
    17   1 H        0.924     0.034     2.534     2.489
    18   1 H        0.925     0.035     2.522     2.484
    19   1 H        0.925     0.040     2.447     2.446
    20   1 H        0.925     0.033     2.540     2.492
    21   1 H        0.925     0.042     2.421     2.433
    22   1 H        0.922     0.005     2.970     2.695
    23   1 H        0.925     0.030     2.591     2.517
    24   1 H        0.926     0.034     2.528     2.486
    25   1 H        0.925     0.037     2.485     2.465
    26   1 H        0.925     0.054     2.273     2.357

Wiberg/Mayer (AO) data.
largest (>0.10) Wiberg bond orders for each atom

     #   Z sym  total        # sym  WBO       # sym  WBO       # sym  WBO
 ---------------------------------------------------------------------------
     1   6 C    3.988 --     2 N    1.021    15 H    0.983    13 H    0.982
                            14 H    0.971
     2   7 N    3.123 --     1 C    1.021     3 C    1.002     6 C    0.987
     3   6 C    3.987 --     2 N    1.002     4 C    1.002    17 H    0.976
                            16 H    0.967
     4   6 C    3.996 --     3 C    1.002     5 C    1.000    18 H    0.983
                            19 H    0.983
     5   6 C    3.996 --     4 C    1.000    20 H    0.982    21 H    0.980
                             6 C    0.974
     6   6 C    3.986 --     7 C    1.000     2 N    0.987     5 C    0.974
                            22 H    0.952
     7   6 C    3.988 --     8 C    1.420    12 C    1.385     6 C    1.000
                            10 C    0.113
     8   6 C    3.991 --     9 C    1.441     7 C    1.420    23 H    0.968
                            11 N    0.100
     9   6 C    3.992 --     8 C    1.441    10 C    1.429    24 H    0.970
                            12 C    0.115
    10   6 C    3.982 --    11 N    1.433     9 C    1.429    25 H    0.964
                             7 C    0.113
    11   7 N    3.064 --    12 C    1.453    10 C    1.433     8 C    0.100
    12   6 C    3.981 --    11 N    1.453     7 C    1.385    26 H    0.960
                             9 C    0.115
    13   1 H    0.999 --     1 C    0.982
    14   1 H    1.000 --     1 C    0.971
    15   1 H    0.998 --     1 C    0.983
    16   1 H    1.000 --     3 C    0.967
    17   1 H    0.998 --     3 C    0.976
    18   1 H    0.999 --     4 C    0.983
    19   1 H    0.998 --     4 C    0.983
    20   1 H    0.999 --     5 C    0.982
    21   1 H    0.998 --     5 C    0.980
    22   1 H    1.000 --     6 C    0.952
    23   1 H    0.999 --     8 C    0.968
    24   1 H    0.998 --     9 C    0.970
    25   1 H    0.998 --    10 C    0.964
    26   1 H    0.997 --    12 C    0.960
 ---------------------------------------------------------------------------

molecular dipole:
                 x           y           z       tot (Debye)
 q only:        0.344      -0.073      -0.341
   full:        0.608       0.191      -0.983       2.976

           -------------------------------------------------
          | TOTAL ENERGY              -34.395638317787 Eh   |
          | GRADIENT NORM               0.000358156607 Eh/α |
          | HOMO-LUMO GAP               2.906476100742 eV   |
           -------------------------------------------------

 * finished run on 2022/02/09 at 17:30:05.989
