   * xtb version 6.4.1 (23d549d) compiled by 'conda@3c73975816cd' on 2022-01-07
          program call               : /home/maihfly/anaconda3/envs/Cyclodextrins-env-4.0/bin/xtb pentane_opt_xtb.xyz --chrg 0 --uhf 0 --opt
          number of atoms            :                    17
          number of electrons        :                    32
          charge                     :                     0
          spin                       :                   0.0

   ID    Z sym.   atoms
    1    6 C      1-5
    2    1 H      6-17

          :  Hamiltonian                  GFN2-xTB          :
 * total energy  :   -16.8119941 Eh     change       -0.6661338E-11 Eh
 * total energy  :   -16.8225476 Eh     change       -0.1055346E-01 Eh
 * total energy  :   -16.8246650 Eh     change       -0.2117456E-02 Eh
 * total energy  :   -16.8257119 Eh     change       -0.1046877E-02 Eh
 * total energy  :   -16.8266754 Eh     change       -0.9634781E-03 Eh
 * total energy  :   -16.8274046 Eh     change       -0.7292781E-03 Eh
 * total energy  :   -16.8282286 Eh     change       -0.8239505E-03 Eh
 * total energy  :   -16.8286530 Eh     change       -0.4244124E-03 Eh
 * total energy  :   -16.8290239 Eh     change       -0.3708423E-03 Eh
 * total energy  :   -16.8291943 Eh     change       -0.1704853E-03 Eh
 * total energy  :   -16.8293501 Eh     change       -0.3427834E-04 Eh
 * total energy  :   -16.8293684 Eh     change       -0.1833247E-04 Eh
 * total energy  :   -16.8293888 Eh     change       -0.2040741E-04 Eh
 * total energy  :   -16.8293984 Eh     change       -0.9590925E-05 Eh
 * total energy  :   -16.8294096 Eh     change       -0.1114374E-04 Eh
 * total energy  :   -16.8294196 Eh     change       -0.1009353E-04 Eh
 * total energy  :   -16.8294249 Eh     change       -0.5212765E-05 Eh
 * total energy  :   -16.8294289 Eh     change       -0.3993174E-05 Eh
 * total energy  :   -16.8294330 Eh     change       -0.4157595E-05 Eh
   *** GEOMETRY OPTIMIZATION CONVERGED AFTER 21 ITERATIONS ***

 final structure:
================
17
 xtb: 6.4.1 (23d549d)
C        -2.50060151095481    0.40603181643689   -0.24229659079450
C        -1.29412459215292   -0.48870559480654    0.01423601827786
C         0.01517599209533    0.29438576249079   -0.03710966020044
C         1.23381371028331   -0.60328127735356    0.16324940642729
C         2.53434924402995    0.19061425325270    0.13874556080321
H        -2.44025522326918    0.85257581747029   -1.23182924139579
H        -2.54373300186837    1.20906324306247    0.49024402573421
H        -3.42325009266036   -0.16620591390664   -0.18062077276100
H        -1.39410281254354   -0.96044434358364    0.99404224479559
H        -1.26806458669204   -1.28406719352697   -0.73456785378788
H         0.00404344131084    1.06538958032157    0.73700188200886
H         0.09573225878891    0.79820564514273   -1.00321804312488
H         1.25640092469191   -1.35979620092217   -0.62489926907529
H         1.14514056502028   -1.12510105875409    1.11902967861070
H         2.64251362467669    0.71630726886246   -0.80732873363753
H         3.38885768432383   -0.47024431063167    0.26452279185089
H         2.54808437492008    0.92529250644532    0.94079855626866

          :  Hamiltonian                  GFN2-xTB          :
         :: total energy             -16.829433010984 Eh    ::
         :: gradient norm              0.000919259283 Eh/a0 ::
         :: HOMO-LUMO gap             13.340351515094 eV    ::
         :: SCC energy               -17.087341077190 Eh    ::
         :: -> dispersion             -0.008205232236 Eh    ::
         :: repulsion energy           0.257905543539 Eh    ::

    * Orbital Energies and Occupations

         #    Occupation            Energy/Eh            Energy/eV
      -------------------------------------------------------------
         1        2.0000           -0.6200110             -16.8714
       ...           ...                  ...                  ...
         4        2.0000           -0.5569333             -15.1549
         5        2.0000           -0.5528317             -15.0433
         6        2.0000           -0.5174427             -14.0803
         7        2.0000           -0.4988778             -13.5752
         8        2.0000           -0.4919363             -13.3863
         9        2.0000           -0.4815739             -13.1043
        10        2.0000           -0.4689698             -12.7613
        11        2.0000           -0.4566113             -12.4250
        12        2.0000           -0.4477419             -12.1837
        13        2.0000           -0.4294701             -11.6865
        14        2.0000           -0.4287617             -11.6672
        15        2.0000           -0.4239281             -11.5357
        16        2.0000           -0.4177498             -11.3676 (HOMO)
        17                          0.0724991               1.9728 (LUMO)
        18                          0.1193552               3.2478
        19                          0.1195132               3.2521
        20                          0.1398500               3.8055
        21                          0.1588585               4.3228
        22                          0.1737172               4.7271
        23                          0.1738490               4.7307
        24                          0.1815872               4.9412
        25                          0.1888926               5.1400
        26                          0.1978045               5.3825
        27                          0.2349313               6.3928
       ...                                ...                  ...
        32                          0.3170440               8.6272
      -------------------------------------------------------------
                  HL-Gap            0.4902489 Eh           13.3404 eV

     #   Z          covCN         q      C6AA      α(0)
     1   6 C        3.752    -0.102    22.507     6.765
     2   6 C        3.801    -0.053    21.525     6.606
     3   6 C        3.803    -0.060    21.646     6.624
     4   6 C        3.801    -0.053    21.525     6.606
     5   6 C        3.752    -0.102    22.506     6.765
     6   1 H        0.925     0.033     2.544     2.494
     7   1 H        0.925     0.033     2.542     2.493
     8   1 H        0.925     0.032     2.554     2.499
     9   1 H        0.924     0.028     2.616     2.529
    10   1 H        0.924     0.028     2.615     2.529
    11   1 H        0.924     0.030     2.583     2.513
    12   1 H        0.924     0.030     2.580     2.512
    13   1 H        0.924     0.028     2.618     2.530
    14   1 H        0.924     0.028     2.616     2.529
    15   1 H        0.925     0.033     2.541     2.493
    16   1 H        0.925     0.032     2.554     2.499
    17   1 H        0.925     0.033     2.544     2.494

Wiberg/Mayer (AO) data.
largest (>0.10) Wiberg bond orders for each atom

     #   Z sym  total        # sym  WBO       # sym  WBO       # sym  WBO
 ---------------------------------------------------------------------------
     1   6 C    3.997 --     2 C    1.019     6 H    0.988     7 H    0.988
                             8 H    0.988
     2   6 C    3.998 --     1 C    1.019     3 C    1.008     9 H    0.979
                            10 H    0.979
     3   6 C    3.997 --     2 C    1.008     4 C    1.008    11 H    0.978
                            12 H    0.977
     4   6 C    3.998 --     5 C    1.019     3 C    1.008    13 H    0.979
                            14 H    0.979
     5   6 C    3.997 --     4 C    1.019    17 H    0.988    15 H    0.988
                            16 H    0.988
     6   1 H    0.999 --     1 C    0.988
     7   1 H    0.999 --     1 C    0.988
     8   1 H    0.999 --     1 C    0.988
     9   1 H    0.999 --     2 C    0.979
    10   1 H    0.999 --     2 C    0.979
    11   1 H    0.999 --     3 C    0.978
    12   1 H    0.999 --     3 C    0.977
    13   1 H    0.999 --     4 C    0.979
    14   1 H    0.999 --     4 C    0.979
    15   1 H    0.999 --     5 C    0.988
    16   1 H    0.999 --     5 C    0.988
    17   1 H    0.999 --     5 C    0.988
 ---------------------------------------------------------------------------

molecular dipole:
                 x           y           z       tot (Debye)
 q only:        0.001       0.011      -0.002
   full:        0.001       0.010      -0.002       0.027

           -------------------------------------------------
          | TOTAL ENERGY              -16.829433010984 Eh   |
          | GRADIENT NORM               0.000919259283 Eh/α |
          | HOMO-LUMO GAP              13.340351515094 eV   |
           -------------------------------------------------

 * finished run on 2022/02/09 at 17:30:06.246
