   * xtb version 6.4.1 (23d549d) compiled by 'conda@3c73975816cd' on 2022-01-07
          program call               : /home/maihfly/anaconda3/envs/Cyclodextrins-env-4.0/bin/xtb propane_opt_xtb.xyz --chrg 0 --uhf 0 --opt
          number of atoms            :                    11
          number of electrons        :                    20
          charge                     :                     0
          spin                       :                   0.0

   ID    Z sym.   atoms
    1    6 C      1-3
    2    1 H      4-11

          :  Hamiltonian                  GFN2-xTB          :
 * total energy  :   -10.4828789 Eh     change       -0.1669598E-10 Eh
 * total energy  :   -10.4922658 Eh     change       -0.9386911E-02 Eh
 * total energy  :   -10.4931857 Eh     change       -0.9199070E-03 Eh
 * total energy  :   -10.4938196 Eh     change       -0.6338736E-03 Eh
 * total energy  :   -10.4950508 Eh     change       -0.1231227E-02 Eh
 * total energy  :   -10.4962114 Eh     change       -0.1160559E-02 Eh
 * total energy  :   -10.4978422 Eh     change       -0.1630821E-02 Eh
 * total energy  :   -10.4992994 Eh     change       -0.1457225E-02 Eh
 * total energy  :   -10.4996540 Eh     change       -0.3545440E-03 Eh
 * total energy  :   -10.5002856 Eh     change       -0.6315640E-03 Eh
 * total energy  :   -10.5004411 Eh     change       -0.1555595E-03 Eh
 * total energy  :   -10.5005068 Eh     change       -0.6566062E-04 Eh
 * total energy  :   -10.5007579 Eh     change       -0.2511001E-03 Eh
 * total energy  :   -10.5007956 Eh     change       -0.3767868E-04 Eh
 * total energy  :   -10.5008191 Eh     change       -0.2356108E-04 Eh
 * total energy  :   -10.5008206 Eh     change       -0.1483871E-05 Eh
 * total energy  :   -10.5008231 Eh     change       -0.2498123E-05 Eh
   *** GEOMETRY OPTIMIZATION CONVERGED AFTER 17 ITERATIONS ***

 final structure:
================
11
 xtb: 6.4.1 (23d549d)
C         1.27376097999529   -0.09590641032550    0.10549302483292
C        -0.04763389268497    0.53541926314563   -0.31596832174549
C        -1.23831743010468   -0.30409702575114    0.13021190842253
H         2.11222280235172    0.52217767608545   -0.20554802238324
H         1.38698484548654   -1.07983239865575   -0.34516326330995
H         1.31282455247785   -0.20908892499536    1.18625747356870
H        -0.12654250435850    1.53484296069905    0.11826906778557
H        -0.06702075074850    0.64394009387688   -1.40278122823888
H        -1.25433676130482   -0.39467208576029    1.21451187879849
H        -2.17285822773769    0.15111891749276   -0.19076414740964
H        -1.17909361337221   -1.30390206581183   -0.29450837032103

          :  Hamiltonian                  GFN2-xTB          :
         :: total energy             -10.500823097391 Eh    ::
         :: gradient norm              0.000763208356 Eh/a0 ::
         :: HOMO-LUMO gap             14.585714566231 eV    ::
         :: SCC energy               -10.665129952833 Eh    ::
         :: -> dispersion             -0.003957963814 Eh    ::
         :: repulsion energy           0.164305479738 Eh    ::

    * Orbital Energies and Occupations

         #    Occupation            Energy/Eh            Energy/eV
      -------------------------------------------------------------
         1        2.0000           -0.6139782             -16.7072
         2        2.0000           -0.5841231             -15.8948
         3        2.0000           -0.5539320             -15.0733
         4        2.0000           -0.5076431             -13.8137
         5        2.0000           -0.4966474             -13.5145
         6        2.0000           -0.4754951             -12.9389
         7        2.0000           -0.4592174             -12.4959
         8        2.0000           -0.4372267             -11.8975
         9        2.0000           -0.4351549             -11.8412
        10        2.0000           -0.4239328             -11.5358 (HOMO)
        11                          0.1120824               3.0499 (LUMO)
        12                          0.1367774               3.7219
        13                          0.1421159               3.8672
        14                          0.1613915               4.3917
        15                          0.1724491               4.6926
        16                          0.2035719               5.5395
        17                          0.2317388               6.3059
        18                          0.2600811               7.0772
        19                          0.2691287               7.3234
        20                          0.3020805               8.2200
      -------------------------------------------------------------
                  HL-Gap            0.5360151 Eh           14.5857 eV

     #   Z          covCN         q      C6AA      α(0)
     1   6 C        3.752    -0.102    22.512     6.766
     2   6 C        3.799    -0.047    21.425     6.590
     3   6 C        3.752    -0.102    22.510     6.766
     4   1 H        0.925     0.031     2.574     2.509
     5   1 H        0.925     0.033     2.538     2.491
     6   1 H        0.925     0.034     2.533     2.489
     7   1 H        0.924     0.028     2.619     2.531
     8   1 H        0.924     0.028     2.619     2.531
     9   1 H        0.925     0.033     2.538     2.491
    10   1 H        0.925     0.031     2.576     2.510
    11   1 H        0.925     0.034     2.534     2.489

Wiberg/Mayer (AO) data.
largest (>0.10) Wiberg bond orders for each atom

     #   Z sym  total        # sym  WBO       # sym  WBO       # sym  WBO
 ---------------------------------------------------------------------------
     1   6 C    3.997 --     2 C    1.020     5 H    0.988     6 H    0.988
                             4 H    0.988
     2   6 C    3.998 --     3 C    1.020     1 C    1.020     8 H    0.980
                             7 H    0.980
     3   6 C    3.997 --     2 C    1.020     9 H    0.988    11 H    0.988
                            10 H    0.988
     4   1 H    0.999 --     1 C    0.988
     5   1 H    0.999 --     1 C    0.988
     6   1 H    0.999 --     1 C    0.988
     7   1 H    0.999 --     2 C    0.980
     8   1 H    0.999 --     2 C    0.980
     9   1 H    0.999 --     3 C    0.988
    10   1 H    0.999 --     3 C    0.988
    11   1 H    0.999 --     3 C    0.988
 ---------------------------------------------------------------------------

molecular dipole:
                 x           y           z       tot (Debye)
 q only:        0.001      -0.007       0.004
   full:        0.001      -0.007       0.005       0.023

           -------------------------------------------------
          | TOTAL ENERGY              -10.500823097391 Eh   |
          | GRADIENT NORM               0.000763208356 Eh/α |
          | HOMO-LUMO GAP              14.585714566231 eV   |
           -------------------------------------------------

 * finished run on 2022/02/09 at 17:30:04.633
