   * xtb version 6.4.1 (23d549d) compiled by 'conda@3c73975816cd' on 2022-01-07
          program call               : /home/maihfly/anaconda3/envs/Cyclodextrins-env-4.0/bin/xtb Vanillin_opt_xtb.xyz --chrg 0 --uhf 0 --opt
          number of atoms            :                    19
          number of electrons        :                    58
          charge                     :                     0
          spin                       :                   0.0

   ID    Z sym.   atoms
    1    8 O      1, 7, 9
    2    6 C      2-6, 8, 10, 11
    3    1 H      12-19

          :  Hamiltonian                  GFN2-xTB          :
 * total energy  :   -33.3632585 Eh     change       -0.1609877E-09 Eh
 * total energy  :   -33.3760370 Eh     change       -0.1277853E-01 Eh
 * total energy  :   -33.3794041 Eh     change       -0.3367079E-02 Eh
 * total energy  :   -33.3801085 Eh     change       -0.7043605E-03 Eh
 * total energy  :   -33.3804402 Eh     change       -0.3317570E-03 Eh
 * total energy  :   -33.3805773 Eh     change       -0.1370902E-03 Eh
 * total energy  :   -33.3807417 Eh     change       -0.1643569E-03 Eh
 * total energy  :   -33.3808429 Eh     change       -0.1012894E-03 Eh
 * total energy  :   -33.3809189 Eh     change       -0.7592114E-04 Eh
 * total energy  :   -33.3809553 Eh     change       -0.3646866E-04 Eh
 * total energy  :   -33.3809832 Eh     change       -0.2782048E-04 Eh
 * total energy  :   -33.3809931 Eh     change       -0.9972079E-05 Eh
 * total energy  :   -33.3809967 Eh     change       -0.3565526E-05 Eh
 * total energy  :   -33.3809985 Eh     change       -0.1815254E-05 Eh
   *** GEOMETRY OPTIMIZATION CONVERGED AFTER 14 ITERATIONS ***

 final structure:
================
19
 xtb: 6.4.1 (23d549d)
O        -3.60653029814115    1.61941729269052   -0.45953936102142
C        -2.40215833442002    1.66624115590511   -0.40967600286297
C        -1.51505720100396    0.53222434412266   -0.16008914866141
C        -2.04570978125846   -0.73833946634959    0.05426553596089
C        -1.21252011528736   -1.81156581001396    0.29146618835440
C         0.16372861295368   -1.63152951461834    0.31718714433442
O         0.97726566805145   -2.68212236893468    0.54964743955127
C         0.70937645613888   -0.34814520235143    0.09948302985879
O         2.08222504030332   -0.30250751124712    0.14865729519856
C         2.71290919805406    0.93542933833941   -0.07258453502411
C        -0.12818283431447    0.72061846421997   -0.13606369061573
H        -1.86715526428051    2.62701893893834   -0.55859550173003
H        -3.11724800530526   -0.86033697466821    0.03046220054605
H        -1.60130236365721   -2.80262126739075    0.46011532611686
H         1.89384447780719   -2.37056725147840    0.53050959950589
H         2.48674199104460    1.32450699703029   -1.06948158654416
H         2.42213956805714    1.67158685709059    0.68282746442117
H         3.78125349834672    0.73982753816773    0.00599437826538
H         0.26638968691136    1.71087444054794   -0.30458577565391

          :  Hamiltonian                  GFN2-xTB          :
         :: total energy             -33.380998510609 Eh    ::
         :: gradient norm              0.000583853419 Eh/a0 ::
         :: HOMO-LUMO gap              2.890262644100 eV    ::
         :: SCC energy               -33.803336077167 Eh    ::
         :: -> dispersion             -0.015607703778 Eh    ::
         :: repulsion energy           0.422297816483 Eh    ::

    * Orbital Energies and Occupations

         #    Occupation            Energy/Eh            Energy/eV
      -------------------------------------------------------------
         1        2.0000           -0.7418115             -20.1857
       ...           ...                  ...                  ...
        17        2.0000           -0.5398399             -14.6898
        18        2.0000           -0.5290311             -14.3957
        19        2.0000           -0.5144443             -13.9987
        20        2.0000           -0.5071768             -13.8010
        21        2.0000           -0.4915358             -13.3754
        22        2.0000           -0.4885614             -13.2944
        23        2.0000           -0.4855979             -13.2138
        24        2.0000           -0.4662241             -12.6866
        25        2.0000           -0.4641057             -12.6290
        26        2.0000           -0.4455992             -12.1254
        27        2.0000           -0.4164022             -11.3309
        28        2.0000           -0.3958477             -10.7716
        29        2.0000           -0.3916915             -10.6585 (HOMO)
        30                         -0.2854763              -7.7682 (LUMO)
        31                         -0.2353532              -6.4043
        32                         -0.1949021              -5.3036
        33                         -0.0950106              -2.5854
        34                         -0.0061489              -0.1673
        35                          0.0670377               1.8242
        36                          0.0922971               2.5115
        37                          0.1027204               2.7952
        38                          0.1087814               2.9601
        39                          0.1483990               4.0381
        40                          0.1595882               4.3426
       ...                                ...                  ...
        52                          0.6746038              18.3569
      -------------------------------------------------------------
                  HL-Gap            0.1062152 Eh            2.8903 eV

     #   Z          covCN         q      C6AA      α(0)
     1   8 O        0.856    -0.342    20.553     6.078
     2   6 C        2.767     0.206    23.617     7.959
     3   6 C        2.971    -0.025    28.612     8.774
     4   6 C        2.923    -0.025    28.629     8.775
     5   6 C        2.915    -0.055    29.371     8.887
     6   6 C        2.847     0.138    24.980     8.191
     7   8 O        1.660    -0.367    20.217     6.070
     8   6 C        2.861     0.109    25.594     8.292
     9   8 O        1.705    -0.285    18.727     5.843
    10   6 C        3.643     0.037    20.286     6.475
    11   6 C        2.919    -0.065    29.628     8.926
    12   1 H        0.922     0.008     2.928     2.676
    13   1 H        0.926     0.073     2.048     2.238
    14   1 H        0.926     0.068     2.108     2.271
    15   1 H        0.805     0.324     0.652     1.269
    16   1 H        0.924     0.044     2.393     2.419
    17   1 H        0.924     0.044     2.394     2.420
    18   1 H        0.925     0.064     2.155     2.296
    19   1 H        0.926     0.047     2.355     2.400

Wiberg/Mayer (AO) data.
largest (>0.10) Wiberg bond orders for each atom

     #   Z sym  total        # sym  WBO       # sym  WBO       # sym  WBO
 ---------------------------------------------------------------------------
     1   8 O    2.067 --     2 C    1.852
     2   6 C    3.927 --     1 O    1.852     3 C    1.077    12 H    0.930
     3   6 C    3.988 --     4 C    1.371    11 C    1.336     2 C    1.077
     4   6 C    3.988 --     5 C    1.456     3 C    1.371    13 H    0.964
     5   6 C    3.986 --     4 C    1.456     6 C    1.377    14 H    0.965
     6   6 C    3.946 --     5 C    1.377     8 C    1.264     7 O    1.110
     7   8 O    2.149 --     6 C    1.110    15 H    0.869
     8   6 C    3.934 --    11 C    1.439     6 C    1.264     9 O    1.038
     9   8 O    2.209 --     8 C    1.038    10 C    0.981
    10   6 C    3.942 --     9 O    0.981    18 H    0.979    16 H    0.977
                            17 H    0.977
    11   6 C    3.989 --     8 C    1.439     3 C    1.336    19 H    0.962
    12   1 H    0.999 --     2 C    0.930
    13   1 H    0.995 --     4 C    0.964
    14   1 H    0.994 --     5 C    0.965
    15   1 H    0.895 --     7 O    0.869
    16   1 H    0.998 --    10 C    0.977
    17   1 H    0.998 --    10 C    0.977
    18   1 H    0.995 --    10 C    0.979
    19   1 H    0.998 --    11 C    0.962
 ---------------------------------------------------------------------------

molecular dipole:
                 x           y           z       tot (Debye)
 q only:        1.669      -0.096       0.087
   full:        2.070       0.239       0.041       5.296

           -------------------------------------------------
          | TOTAL ENERGY              -33.380998510609 Eh   |
          | GRADIENT NORM               0.000583853419 Eh/α |
          | HOMO-LUMO GAP               2.890262644100 eV   |
           -------------------------------------------------

 * finished run on 2022/02/09 at 17:30:04.858
